pkgbase = python-gsd
	pkgdesc = GSD files store trajectories of the HOOMD-blue system state in a binary file with efficient random access to frames and allows all particle and topology properties to vary from one frame to the next.
	pkgver = 3.2.0
	pkgrel = 1
	url = https://github.com/glotzerlab/gsd/
	arch = x86_64
	license = BSD
	depends = cython
	depends = python-numpy
	source = https://github.com/glotzerlab/gsd/archive/v3.2.0.tar.gz
	sha256sums = 5310387eaf9cc0b4f1eff83f44af1735709cc99be432a59d7b42c0052cbb3ade

pkgname = python-gsd
