pkgbase = python-gsd
	pkgdesc = GSD files store trajectories of the HOOMD-blue system state in a binary file with efficient random access to frames and allows all particle and topology properties to vary from one frame to the next.
	pkgver = 2.4.0
	pkgrel = 1
	url = https://github.com/glotzerlab/gsd/
	arch = x86_64
	license = BSD
	depends = cython
	depends = python-numpy
	source = https://github.com/glotzerlab/gsd/archive/v2.4.0.tar.gz
	sha256sums = 210b56995b22ae7cc2c53e0307f267752c7738ae4b149ab798f9c16f47943a8b

pkgname = python-gsd

