pkgbase = python-gsd
	pkgdesc = GSD files store trajectories of the HOOMD-blue system state in a binary file with efficient random access to frames and allows all particle and topology properties to vary from one frame to the next.
	pkgver = 2.5.1
	pkgrel = 1
	url = https://github.com/glotzerlab/gsd/
	arch = x86_64
	license = BSD
	depends = cython
	depends = python-numpy
	source = https://github.com/glotzerlab/gsd/archive/v2.5.1.tar.gz
	sha256sums = 1aff7f078b913bfd497c063bac941757b62462110cd69e63527db0b103cf8314

pkgname = python-gsd
